# vtk DataFile Version 2.0
Data
ASCII
DATASET UNSTRUCTURED_GRID

POINTS   3844 float
           1           1 0
           2           1 0
           3           1 0
           4           1 0
           5           1 0
           6           1 0
           7           1 0
           8           1 0
           9           1 0
          10           1 0
          11           1 0
          12           1 0
          13           1 0
          14           1 0
          15           1 0
          16           1 0
          17           1 0
          18           1 0
          19           1 0
          20           1 0
          21           1 0
          22           1 0
          23           1 0
          24           1 0
          25           1 0
          26           1 0
          27           1 0
          28           1 0
          29           1 0
          30           1 0
          31           1 0
          32           1 0
          33           1 0
          34           1 0
          35           1 0
          36           1 0
          37           1 0
          38           1 0
          39           1 0
          40           1 0
          41           1 0
          42           1 0
          43           1 0
          44           1 0
          45           1 0
          46           1 0
          47           1 0
          48           1 0
          49           1 0
          50           1 0
          51           1 0
          52           1 0
          53           1 0
          54           1 0
          55           1 0
          56           1 0
          57           1 0
          58           1 0
          59           1 0
          60           1 0
          61           1 0
          62           1 0
           1           2 0
           2           2 0
           3           2 0
           4           2 0
           5           2 0
           6           2 0
           7           2 0
           8           2 0
           9           2 0
          10           2 0
          11           2 0
          12           2 0
          13           2 0
          14           2 0
          15           2 0
          16           2 0
          17           2 0
          18           2 0
          19           2 0
          20           2 0
          21           2 0
          22           2 0
          23           2 0
          24           2 0
          25           2 0
          26           2 0
          27           2 0
          28           2 0
          29           2 0
          30           2 0
          31           2 0
          32           2 0
          33           2 0
          34           2 0
          35           2 0
          36           2 0
          37           2 0
          38           2 0
          39           2 0
          40           2 0
          41           2 0
          42           2 0
          43           2 0
          44           2 0
          45           2 0
          46           2 0
          47           2 0
          48           2 0
          49           2 0
          50           2 0
          51           2 0
          52           2 0
          53           2 0
          54           2 0
          55           2 0
          56           2 0
          57           2 0
          58           2 0
          59           2 0
          60           2 0
          61           2 0
          62           2 0
           1           3 0
           2           3 0
           3           3 0
           4           3 0
           5           3 0
           6           3 0
           7           3 0
           8           3 0
           9           3 0
          10           3 0
          11           3 0
          12           3 0
          13           3 0
          14           3 0
          15           3 0
          16           3 0
          17           3 0
          18           3 0
          19           3 0
          20           3 0
          21           3 0
          22           3 0
          23           3 0
          24           3 0
          25           3 0
          26           3 0
          27           3 0
          28           3 0
          29           3 0
          30           3 0
          31           3 0
          32           3 0
          33           3 0
          34           3 0
          35           3 0
          36           3 0
          37           3 0
          38           3 0
          39           3 0
          40           3 0
          41           3 0
          42           3 0
          43           3 0
          44           3 0
          45           3 0
          46           3 0
          47           3 0
          48           3 0
          49           3 0
          50           3 0
          51           3 0
          52           3 0
          53           3 0
          54           3 0
          55           3 0
          56           3 0
          57           3 0
          58           3 0
          59           3 0
          60           3 0
          61           3 0
          62           3 0
           1           4 0
           2           4 0
           3           4 0
           4           4 0
           5           4 0
           6           4 0
           7           4 0
           8           4 0
           9           4 0
          10           4 0
          11           4 0
          12           4 0
          13           4 0
          14           4 0
          15           4 0
          16           4 0
          17           4 0
          18           4 0
          19           4 0
          20           4 0
          21           4 0
          22           4 0
          23           4 0
          24           4 0
          25           4 0
          26           4 0
          27           4 0
          28           4 0
          29           4 0
          30           4 0
          31           4 0
          32           4 0
          33           4 0
          34           4 0
          35           4 0
          36           4 0
          37           4 0
          38           4 0
          39           4 0
          40           4 0
          41           4 0
          42           4 0
          43           4 0
          44           4 0
          45           4 0
          46           4 0
          47           4 0
          48           4 0
          49           4 0
          50           4 0
          51           4 0
          52           4 0
          53           4 0
          54           4 0
          55           4 0
          56           4 0
          57           4 0
          58           4 0
          59           4 0
          60           4 0
          61           4 0
          62           4 0
           1           5 0
           2           5 0
           3           5 0
           4           5 0
           5           5 0
           6           5 0
           7           5 0
           8           5 0
           9           5 0
          10           5 0
          11           5 0
          12           5 0
          13           5 0
          14           5 0
          15           5 0
          16           5 0
          17           5 0
          18           5 0
          19           5 0
          20           5 0
          21           5 0
          22           5 0
          23           5 0
          24           5 0
          25           5 0
          26           5 0
          27           5 0
          28           5 0
          29           5 0
          30           5 0
          31           5 0
          32           5 0
          33           5 0
          34           5 0
          35           5 0
          36           5 0
          37           5 0
          38           5 0
          39           5 0
          40           5 0
          41           5 0
          42           5 0
          43           5 0
          44           5 0
          45           5 0
          46           5 0
          47           5 0
          48           5 0
          49           5 0
          50           5 0
          51           5 0
          52           5 0
          53           5 0
          54           5 0
          55           5 0
          56           5 0
          57           5 0
          58           5 0
          59           5 0
          60           5 0
          61           5 0
          62           5 0
           1           6 0
           2           6 0
           3           6 0
           4           6 0
           5           6 0
           6           6 0
           7           6 0
           8           6 0
           9           6 0
          10           6 0
          11           6 0
          12           6 0
          13           6 0
          14           6 0
          15           6 0
          16           6 0
          17           6 0
          18           6 0
          19           6 0
          20           6 0
          21           6 0
          22           6 0
          23           6 0
          24           6 0
          25           6 0
          26           6 0
          27           6 0
          28           6 0
          29           6 0
          30           6 0
          31           6 0
          32           6 0
          33           6 0
          34           6 0
          35           6 0
          36           6 0
          37           6 0
          38           6 0
          39           6 0
          40           6 0
          41           6 0
          42           6 0
          43           6 0
          44           6 0
          45           6 0
          46           6 0
          47           6 0
          48           6 0
          49           6 0
          50           6 0
          51           6 0
          52           6 0
          53           6 0
          54           6 0
          55           6 0
          56           6 0
          57           6 0
[...]
POINT_DATA    3844
SCALARS u float
LOOKUP_TABLE default
 -7.24521649457355134E-005
 -1.73462601394164869E-004
 -2.77054368327827759E-004
 -3.80094119287960081E-004
 -4.82113863537528861E-004
 -5.82851565883021330E-004
 -6.82051784049081443E-004
 -7.79459849493548780E-004
 -8.74824745761846982E-004
 -9.67900840917343842E-004
 -1.05844896502439527E-003
 -1.14623720394265382E-003
 -1.23104154748815745E-003
 -1.31264644417909367E-003
 -1.39084528444653873E-003
 -1.46544082297049832E-003
 -1.53624554655812612E-003
 -1.60308199246754078E-003
 -1.66578302167198961E-003
 -1.72419205160254433E-003
 -1.77816325309769832E-003
 -1.82756171649827077E-003
 -1.87226359197745153E-003
 -1.91215620925603061E-003
 -1.94713818180596368E-003
 -1.97711950048021484E-003
 -2.00202162122173214E-003
 -2.02177755110604079E-003
 -2.03633193646184053E-003
 -2.04564115619982083E-003
 -2.04967342278242984E-003
 -2.04840889248103682E-003
 -2.04183978572570904E-003
 -2.02997051745719198E-003
 -2.01281783646614296E-003
 -1.99041097176655760E-003
 -1.96279178311799252E-003
 -1.93001491190684851E-003
 -1.89214792774030868E-003
 -1.84927146532042064E-003
 -1.80147934547025064E-003
 -1.74887867360492871E-003
 -1.69158990849003544E-003
 -1.62974689384359100E-003
 -1.56349684521624199E-003
 -1.49300028465022784E-003
 -1.41843091588531576E-003
 -1.33997543334689936E-003
 -1.25783325882347055E-003
 -1.17221620059518240E-003
 -1.08334803076441644E-003
 -9.91463977475062850E-004
 -8.96810129435215639E-004
 -7.99642749296911341E-004
 -7.00227485273655342E-004
 -5.98838446580805838E-004
 -4.95757048182723535E-004
 -3.91270907937286158E-004
 -2.85684433401021693E-004
 -1.79524984980554121E-004
 -7.59702807559274645E-005
   0.0000000000000000     
 -1.00172051303004938E-004
 -2.34542347029422578E-004
 -3.72114895450069232E-004
 -5.09037607299978262E-004
 -6.44632831751453428E-004
 -7.78520410568902545E-004
 -9.10349365922308047E-004
 -1.03977673908839862E-003
 -1.16646677325413944E-003
 -1.29009182775917820E-003
 -1.41033338218079932E-003
 -1.52688295018166189E-003
 -1.63944289032887992E-003
 -1.74772712224008429E-003
 -1.85146175659253991E-003
 -1.95038564572894927E-003
 -2.04425086059359168E-003
 -2.13282309949225932E-003
 -2.21588203437971887E-003
 -2.29322160076480186E-003
 -2.36465023774368611E-003
 -2.42999108502285665E-003
 -2.48908214403085332E-003
 -2.54177641030945171E-003
 -2.58794198430576002E-003
 -2.62746216745159264E-003
 -2.66023555001830602E-003
 -2.68617609667952395E-003
 -2.70521323500753658E-003
 -2.71729195129119527E-003
 -2.72237289710312727E-003
 -2.72043250898074303E-003
 -2.71146314244523042E-003
 -2.69547322037338695E-003
 -2.67248739449764188E-003
 -2.64254671755165781E-003
 -2.60570882233480657E-003
 -2.56204810276406411E-003
 -2.51165589084508933E-003
 -2.45464062244941982E-003
 -2.39112798386788630E-003
 -2.32126103034038279E-003
 -2.24520026717490388E-003
 -2.16312368368586474E-003
 -2.07522673002176992E-003
 -1.98172222704268933E-003
 -1.88284019975950754E-003
 -1.77882762547375024E-003
 -1.66994808866603684E-003
 -1.55648133588141228E-003
 -1.43872272534127958E-003
 -1.31698256786151472E-003
 -1.19158535840355271E-003
 -1.06286890090458337E-003
 -9.31183337389353467E-004
 -7.96890120948741550E-004
 -6.60361112999344299E-004
 -5.21979225481757937E-004
 -3.82157810708119391E-004
 -2.41598746763519389E-004
 -1.04133278712680309E-004
   0.0000000000000000     
 -1.03787689399454381E-004
 -2.42526135855216361E-004
 -3.84432415000558151E-004
 -5.25656508703604627E-004
 -6.65517929468799146E-004
 -8.03621178700678843E-004
 -9.39600112032040182E-004
 -1.07309846610511585E-003
 -1.20376853379448976E-003
 -1.33127161748853575E-003
 -1.45527880014446561E-003
 -1.57547176033252714E-003
 -1.69154354688137742E-003
 -1.80319928528967829E-003
 -1.91015680783314162E-003
 -2.01214720668820230E-003
 -2.10891531255002042E-003
 -2.20022010290409076E-003
 -2.28583504522853398E-003
 -2.36554838125232949E-003
 -2.43916335905122652E-003
 -2.50649842024751107E-003
 -2.56738734988381373E-003
 -2.62167939666691505E-003
 -2.66923937121524117E-003
 -2.70994772969985033E-003
 -2.74370064984714654E-003
 -2.77041010567969856E-003
 -2.79000394662259205E-003
 -2.80242598571105823E-003
 -2.80763610061857951E-003
 -2.80561035009378561E-003
 -2.79634110718939358E-003
 -2.77983720938039525E-003
 -2.75612412435857681E-003
 -2.72524412894915901E-003
 -2.68725649728116097E-003
 -2.64223769305387815E-003
 -2.59028155953289424E-003
 -2.53149949979032630E-003
 -2.46602063871647790E-003
 -2.39399195749878668E-003
 -2.31557839062217176E-003
 -2.23096287501353295E-003
 -2.14034634075869123E-003
 -2.04394763288994570E-003
 -1.94200335408688946E-003
 -1.83476761876917886E-003
 -1.72251171000655000E-003
 -1.60552363193221053E-003
 -1.48410755193057755E-003
 -1.35858312908762667E-003
 -1.22928472855674421E-003
 -1.09656052534583162E-003
 -9.60771511033673190E-004
 -8.22290438325976253E-004
 -6.81500822999048391E-004
 -5.38797027818844164E-004
 -3.94600774484092577E-004
 -2.49610590834305841E-004
 -1.07685010914209935E-004
   0.0000000000000000     
 -1.04785255442543983E-004
 -2.44856106594605919E-004
 -3.88085420006872741E-004
 -5.30610325191910445E-004
 -6.71756683241858947E-004
 -8.11128007227631623E-004
 -9.48354235052015172E-004
 -1.08307479512497026E-003
 -1.21493797282815194E-003
 -1.34360145893616884E-003
 -1.46873308573980768E-003
 -1.59001159889501724E-003
 -1.70712740131805899E-003
 -1.81978323904040374E-003
 -1.92769481608108854E-003
 -2.03059133415152502E-003
 -2.12821595767373082E-003
 -2.22032620730452501E-003
 -2.30669428690476923E-003
 -2.38710735010789262E-003
 -2.46136771351733799E-003
 -2.52929302416703920E-003
 -2.59071638926085300E-003
 -2.64548647635813247E-003
 -2.69346759213126129E-003
 -2.73453974756205460E-003
 -2.76859871701018272E-003
 -2.79555609796092825E-003
 -2.81533937747571739E-003
 -2.82789201042936726E-003
 -2.83317351355167951E-003
 -2.83115957810305650E-003
 -2.82184220274494385E-003
 -2.80522984681528436E-003
 -2.78134760283606881E-003
 -2.75023738566638554E-003
 -2.71195813431996226E-003
 -2.66658602109944671E-003
 -2.61421466140636383E-003
 -2.55495531638872580E-003
 -2.48893707951528638E-003
 -2.41630703726084190E-003
 -2.33723039337265176E-003
 -2.25189054568619880E-003
 -2.16048910421407208E-003
 -2.06324583925409808E-003
 -1.96039854857735793E-003
 -1.85220283337289354E-003
 -1.73893177356742429E-003
 -1.62087549438718714E-003
 -1.49834061757106582E-003
 -1.37164959288133448E-003
 -1.24113990784290550E-003
 -1.10716317587859856E-003
 -9.70084107274603335E-004
 -8.30279368628184249E-004
 -6.88136363139804034E-004
 -5.44052726397104306E-004
 -3.98451601511122782E-004
 -2.52032119735908487E-004
 -1.08692728159337821E-004
   0.0000000000000000     
 -1.05821191158271289E-004
 -2.47287312932285017E-004
 -3.91932466328025458E-004
 -5.35856160556884981E-004
 -6.78381948702385783E-004
 -8.19111442197432722E-004
 -9.57671241322130464E-004
 -1.09369689135861161E-003
 -1.22683280108338969E-003
 -1.35673301474436864E-003
 -1.48306202107722444E-003
 -1.60549554151952082E-003
 -1.72372127138401194E-003
 -1.83743955644307235E-003
 -1.94636399537328358E-003
 -2.05022196443477474E-003
 -2.14875506480092940E-003
 -2.24171949571112241E-003
 -2.32888635855878256E-003
 -2.41004189842132250E-003
 -2.48498769055441326E-003
 -2.55354078006788787E-003
 -2.61553378343429852E-003
 -2.67081496066628012E-003
 -2.71924826695119776E-003
 -2.76071339226722449E-003
 -2.79510579703616318E-003
 -2.82233675120406938E-003
 -2.84233338330334593E-003
 -2.85503874505238855E-003
 -2.86041189591020213E-003
 -2.85842801074398219E-003
 -2.84907851241269095E-003
 -2.83237122963262474E-003
 -2.80833057901215587E-003
 -2.77699776863248385E-003
 -2.73843101904663010E-003
 -2.69270579610179006E-003
 -2.63991504857999121E-003
 -2.58016944234644744E-003
 -2.51359758150835428E-003
 -2.44034620608082507E-003
 -2.36058035483174833E-003
 -2.27448348139162176E-003
 -2.18225751138745837E-003
 -2.08412282831637978E-003
 -1.98031817614212910E-003
 -1.87110046718494188E-003
 -1.75674448479622917E-003
 -1.63754247152757379E-003
 -1.51380359499752215E-003
 -1.38585328581277627E-003
 -1.25403244315557580E-003
 -1.11869650504486527E-003
 -9.80214380746916069E-004
 -8.38967237846783968E-004
 -6.95347158697779007E-004
 -5.49756484772180500E-004
 -4.02623340256434692E-004
 -2.54656438648123002E-004
 -1.09806395286224582E-004
   0.0000000000000000     
 -1.07125519238392532E-004
 -2.50335342095498218E-004
 -3.96759098684656259E-004
 -5.42445662867406162E-004
 -6.86710925324359660E-004
 -8.29152197337589838E-004
 -9.69391562916857336E-004
 -1.10705985942998776E-003
 -1.24179685205646974E-003
 -1.37325217598368481E-003
 -1.50108623459106532E-003
 -1.62497102839153740E-003
 -1.74459091082829199E-003
 -1.85964326501885605E-003
 -1.96983909730305594E-003
 -2.07490354640668196E-003
 -2.17457630985383238E-003
 -2.26861199159861509E-003
 -2.35678037669727466E-003
 -2.43886664027220075E-003
 -2.51467149908502939E-003
 -2.58401131479017374E-003
 -2.64671815840007187E-003
 -2.70263984569266971E-003
 -2.75163995323512729E-003
 -2.79359782440332218E-003
 -2.82840857427003271E-003
 -2.85598310150820059E-003
 -2.87624811455354512E-003
 -2.88914617819345998E-003
 -2.89463578551911070E-003
 -2.89269145882665351E-003
 -2.88330388158445456E-003
 -2.86648006204316772E-003
 -2.84224352745729523E-003
 -2.81063454625376553E-003
 -2.77171037384563688E-003
 -2.72554551617751242E-003
 -2.67223200354468719E-003
 -2.61187966576510678E-003
 -2.54461639846569358E-003
 -2.47058840908688298E-003
 -2.38996043025665713E-003
 -2.30291588747668025E-003
 -2.20965700762777413E-003
 -2.11040485467325206E-003
 -2.00539927914414632E-003
 -1.89489876853859507E-003
 -1.77918018668238613E-003
 -1.65853839129583209E-003
 -1.53328572057049076E-003
 -1.40375134169308025E-003
 -1.27028045507550521E-003
 -1.13323335001044010E-003
 -9.92984307508844701E-004
 -8.49920344678033288E-004
 -7.04439831166880285E-004
 -5.56951871161364266E-004
 -4.07892347062161376E-004
 -2.57983132221792583E-004
 -1.11234299822646988E-004
   0.0000000000000000     
 -1.08716509916239367E-004
 -2.54047594683952502E-004
 -4.02637206913191022E-004
 -5.50472903669562449E-004
 -6.96859695857161474E-004
 -8.41388542570411548E-004
 -9.83675552366286869E-004
 -1.12334571492607666E-003
 -1.26003316714390465E-003
 -1.39338223791370553E-003
 -1.52304841892564628E-003
 -1.64869923651523708E-003
 -1.77001502791784382E-003
 -1.88668962231071163E-003
 -1.99843092664407510E-003
 -2.10496141765371134E-003
 -2.20601854338220004E-003
 -2.30135503946551651E-003
 -2.39073916713947914E-003
 -2.47395488131824798E-003
 -2.55080193817890013E-003
 -2.62109595246040605E-003
 -2.68466841515923975E-003
 -2.74136668249632277E-003
 -2.79105394694978545E-003
 -2.83360920081473676E-003
 -2.86892720217879959E-003
 -2.89691845240934876E-003
 -2.91750919325540863E-003
 -2.93064143048927172E-003
 -2.93627298967845656E-003
 -2.93437760820225262E-003
 -2.92494506603374832E-003
 -2.90798135612681382E-003
 -2.88350889349273240E-003
 -2.85156676026359496E-003
 -2.81221098223616642E-003
 -2.76551483060755773E-003
 -2.71156914088958520E-003
 -2.65048263934891150E-003
 -2.58238226581777473E-003
 -2.50741348038867155E-003
 -2.42574054038028437E-003
 -2.33754673309546131E-003
 -2.24303454932337854E-003
 -2.14242578229277168E-003
 -2.03596153691303766E-003
 -1.92390213464678776E-003
 -1.80652690027302380E-003
 -1.68413381802231220E-003
 -1.55703904632528982E-003
 -1.42557628261124930E-003
 -1.29009597066215244E-003
 -1.15096434617078017E-003
 -1.00856231733145881E-003
 -8.63284180908796919E-004
 -7.15536221064622677E-004
 -5.65736135784067427E-004
 -4.14329509825947962E-004
 -2.62053533183588961E-004
 -1.12987116095716652E-004
   0.0000000000000000     
 -1.10600008546274817E-004
 -2.58439714904686350E-004
 -4.09591131478083523E-004
 -5.59969755894516256E-004
 -7.08867220823613045E-004
 -8.55866396420839779E-004
 -1.00057595383389844E-003
 -1.14261378784187378E-003
 -1.28160731647266766E-003
 -1.41719458982022292E-003
 -1.54902531611582003E-003
 -1.67676177139669015E-003
 -1.80007959577995554E-003
 -1.91866847879231602E-003
 -2.03223273609567283E-003
 -2.14049178101900685E-003
 -2.24318049593265822E-003
 -2.34004951023475448E-003
 -2.43086539334012473E-003
 -2.51541077243867079E-003
 -2.59348438588421397E-003
 -2.66490108385554958E-003
 -2.72949178840885048E-003
 -2.78710342520870156E-003
 -2.83759883911042501E-003
 -2.88085670536978320E-003
 -2.91677144761105225E-003
 -2.94525317279638104E-003
 -2.96622763233976355E-003
 -2.97963621721300314E-003
 -2.98543599342267511E-003
 -2.98359978262050050E-003
 -2.97411629086230707E-003
 -2.95699028668486427E-003
 -2.93224282774433168E-003
 -2.89991153328156585E-003
 -2.86005089768540284E-003
 -2.81273263843236088E-003
 -2.75804606974493953E-003
 -2.69609849145386639E-003
 -2.62701558082391881E-003
 -2.55094177355151813E-003
 -2.46804061880038584E-003
 -2.37849509208281273E-003
 -2.28250784904676304E-003
 -2.18030140284506714E-003
 -2.07211820778772232E-003
 -1.95822063243564822E-003
 -1.83889080621829257E-003
 -1.71443032494336396E-003
 -1.58515980262268191E-003
 -1.45141825933029715E-003
 -1.31356233656968889E-003
 -1.17196533580435163E-003
 -1.02701607832371812E-003
 -8.79117591357387543E-004
 -7.28685676765773054E-004
 -5.76148336461485694E-004
 -4.21962590729521515E-004
 -2.66883198880038996E-004
 -1.15069198460989591E-004
   0.0000000000000000     
 -1.12782427697947607E-004
 -2.63527277715613201E-004
 -4.17645371950142090E-004
 -5.70969007939351380E-004
 -7.22774101856956275E-004
 -8.72633829391363577E-004
 -1.02014797914763158E-003
 -1.16492605490695371E-003
 -1.30658760042667204E-003
 -1.44476335906381010E-003
 -1.57909634587367572E-003
 -1.70924279033875812E-003
 -1.83487295014577736E-003
 -1.95567179846435450E-003
 -2.07133958815300910E-003
 -2.18159229777740646E-003
 -2.28616196606478512E-003
 -2.38479692320260400E-003
 -2.47726192904078237E-003
 -2.56333822967077163E-003
 -2.64282354497458790E-003
 -2.71553200053126914E-003
 -2.78129401773612780E-003
 -2.83995617612588453E-003
 -2.89138106173161130E-003
 -2.93544711480977528E-003
 -2.97204848955819013E-003
 -3.00109493742467190E-003
 -3.02251172438590442E-003
 -3.03623959113737216E-003
 -3.04223476351440794E-003
 -3.04046901867923618E-003
 -3.03092981068777984E-003
 -3.01362045701615176E-003
 -2.98856038549438546E-003
 -2.95578543890744061E-003
 -2.91534823229309308E-003
 -2.86731855574272982E-003
 -2.81178381331684572E-003
 -2.74884948657115949E-003
 -2.67863960919542243E-003
 -2.60129723744103973E-003
 -2.51698489941977639E-003
 -2.42588500504816069E-003
 -2.32820019744289872E-003
 -2.22415362600685354E-003
 -2.11398912133359653E-003
 -1.99797125244460631E-003
 -1.87638524780497787E-003
 -1.74953676292372929E-003
 -1.61775147974637236E-003
 -1.48137452542608603E-003
 -1.34076970071065325E-003
 -1.19631851298673147E-003
 -1.04841901265664578E-003
 -8.97484439561389608E-004
 -7.43941739118444425E-004
 -5.88230944077591409E-004
 -4.30822316473745135E-004
 -2.72490783633871729E-004
 -1.17487912632082680E-004
   0.0000000000000000     
 -1.15271287486768347E-004
 -2.69328044420213974E-004
 -4.26827919761154728E-004
 -5.83508443561397950E-004
 -7.38627445639648936E-004
 -8.91746813685126557E-004
 -1.04245599269918053E-003
 -1.19035475670352343E-003
 -1.33505356821776158E-003
 -1.47617478986351966E-003
 -1.61335380073686818E-003
 -1.74623996999977312E-003
 -1.87449748564381155E-003
 -1.99780604028860749E-003
 -2.11586137798511469E-003
 -2.22837570809452691E-003
 -2.33507799441546151E-003
 -2.43571412973548696E-003
 -2.53004700777307873E-003
 -2.61785650598485341E-003
 -2.69893939388594645E-003
 -2.77310918234798974E-003
 -2.84019592979028752E-003
 -2.90004602127905044E-003
 -2.95252193629884667E-003
 -2.99750202039862244E-003
 -3.03488027504827300E-003
 -3.06456617890800290E-003
 -3.08648455233079657E-003
 -3.10057547531717749E-003
 -3.10679426734372438E-003
 -3.10511153551265660E-003
 -3.09551329535251571E-003
 -3.07800116634485534E-003
 -3.05259264189647328E-003
 -3.01932143103878859E-003
 -2.97823786665484761E-003
 -2.92940937252893739E-003
 -2.87292097902664637E-003
 -2.80887587478548814E-003
 -2.73739597948517797E-003
 -2.65862252062160163E-003
 -2.57271659529690385E-003
 -2.47985969642068984E-003
 -2.38025418147546188E-003
 -2.27412366119209052E-003
 -2.16171328519064367E-003
 -2.04328990192235429E-003
 -1.91914207116298760E-003
 -1.78957990873835249E-003
 -1.65493474591751791E-003
 -1.51555858835592428E-003
 -1.37182336306538666E-003
 -1.22411994700233014E-003
 -1.07285697544797724E-003
 -9.18459436850925927E-004
 -7.61367114745579348E-004
 -6.02033895602823539E-004
 -4.40945252262541464E-004
 -2.78899196574419761E-004
 -1.20252971232529012E-004
   0.0000000000000000     
 -1.18075257803616220E-004
 -2.75862354030089352E-004
 -4.37170848924089733E-004
 -5.97631488620555202E-004
 -7.56481542266344061E-004
 -9.13269961519686435E-004
 -1.06757433564811191E-003
 -1.21898331568683570E-003
 -1.36709702312099259E-003
 -1.51152832153381611E-003
 -1.65190398041432799E-003
 -1.78786567985131004E-003
 -1.91907085235631307E-003
 -2.04519336320861883E-003
 -2.16592403378656432E-003
 -2.28097101513221288E-003
 -2.39006002157797753E-003
 -2.49293443658261905E-003
 -2.58935530493880489E-003
 -2.67910122716028378E-003
 -2.76196817310980650E-003
 -2.83776923277092620E-003
 -2.90633432250002885E-003
 -2.96750986513062611E-003
 -3.02115846196415955E-003
 -3.06715857399374138E-003
 -3.10540422869895732E-003
 -3.13580476745487858E-003
 -3.15828464703882695E-003
 -3.17278330692863028E-003
 -3.17925511208986102E-003
 -3.17766937876464393E-003
 -3.16801048843191619E-003
 -3.15027809261343326E-003
 -3.12448740859470279E-003
 -3.09066960342310737E-003
 -3.04887226077296940E-003
 -2.99915992244002274E-003
 -2.94161469340223792E-003
 -2.87633689660282601E-003
 -2.80344576092746199E-003
 -2.72308012331532682E-003
 -2.63539912364364054E-003
 -2.54058286903598510E-003
 -2.43883304264880252E-003
 -2.33037343088313099E-003
 -2.21545034242594426E-003
 -2.09433289265009747E-003
 -1.96731312776328221E-003
 -1.83470596457534002E-003
 -1.69684892482607286E-003
 -1.55410164555494306E-003
 -1.40684515149916076E-003
 -1.25548088084532789E-003
 -1.10042946116040608E-003
 -9.42129241190884530E-004
 -7.81034639671430954E-004
 -6.17615357320220248E-004
 -4.52374236470239836E-004
 -2.86135571454686167E-004
 -1.23376080052871795E-004
   0.0000000000000000     
 -1.21204238407269689E-004
 -2.83153390369296585E-004
 -4.48710729091046060E-004
 -6.13387707497492192E-004
 -7.76398416819340845E-004
 -9.37277129599416517E-004
 -1.09558798669725631E-003
 -1.25090705158335488E-003
 -1.40282278392249741E-003
 -1.55093738248582259E-003
 -1.69486800240414089E-003
 -1.83424779288056438E-003
 -1.96872675061435113E-003
 -2.09797239022733702E-003
 -2.22167023687268534E-003
 -2.33952414966115537E-003
 -2.45125648763608274E-003
 -2.55660813273325769E-003
 -2.65533838644563605E-003
 -2.74722475872911636E-003
 -2.83206266903469157E-003
 -2.90966508021798902E-003
 -2.97986208647918298E-003
 -3.04250047643883853E-003
 -3.09744329200133854E-003
 -3.14456940281675245E-003
 -3.18377311497199372E-003
 -3.21496383105387929E-003
 -3.23806577696635935E-003
 -3.25301780887689729E-003
 -3.25977331145342825E-003
 -3.25830019612737953E-003
 -3.24858100553102177E-003
 -3.23061312750825115E-003
 -3.20440911922009568E-003
 -3.16999713886419480E-003
 -3.12742147941528180E-003
 -3.07674319562003954E-003
 -3.01804081228007918E-003
 -2.95141109865918426E-003
 -2.87696989072918664E-003
 -2.79485293997718074E-003
 -2.70521676473506464E-003
 -2.60823947753978640E-003
 -2.50412155999862971E-003
 -2.39308655512502407E-003
 -2.27538164624841712E-003
 -2.15127809149019559E-003
 -2.02107148354371737E-003
 -1.88508180598440317E-003
 -1.74365326068395637E-003
 -1.59715384357537993E-003
 -1.44597465139579997E-003
 -1.29052890768699934E-003
 -1.13125070281752216E-003
 -9.68593452297092697E-004