  TITLE = "mach 0.15 flow over a backward facing step"
  VARIABLES = "x","y","pressure","u","v","mach","temperature"
  ZONE I=          18  J=          18 , F = POINT
  7.22295289549475846E-013  1.44479914143680332E-013   8.7812282821803418        4.8175471009774391      -2.83992909033544925E-002   2.6095822547467642        3.4081998236415978     
  2.12836253958327629E-002  1.43210963921003298E-013   8.9886789811628987        4.8169969344012253       1.86691166479217613E-003   2.5996173996054774        3.4334753585394213     
  8.44097132452287513E-002  1.39592764430984673E-013   8.9773215202898946        4.8181876491461511      -3.57750691536527744E-004   2.6008487559958646        3.4319205606011338     
  0.18722858033859602       1.33673454250082813E-013   8.9840777477746521        4.8168217504537800       7.66136844602986018E-004   2.5999996576410704        3.4322157504243158     
  0.32623885347470971       1.25636046705013271E-013   8.9722879689476240        4.8179064530807594      -1.08425333888329672E-003   2.6009133982973647        3.4313495741737357     
  0.49670670452636528       1.15778914233644059E-013   8.9864017770231683        4.8161001719975989       1.03870837597169101E-003   2.5995695360596303        3.4323231160585923     
  0.69282705527964905       1.04432955339017752E-013   8.9681795757194855        4.8185837854653739      -1.68447015136247136E-003   2.6013534322724507        3.4311535966014701     
  0.90792126241009341       9.20275140814386106E-014   9.0029482244260226        4.8144018004565856       3.73525464540782953E-003   2.5983392882745773        3.4331533825234533     
   1.1346645506709387       7.89151730073989199E-014   9.1182184083644344        4.8172267277374186       2.16083678014707438E-002   2.5941228801465788        3.4484332553399568     
   1.3653354493290588       6.56128797127397689E-014   8.9371523066062952        4.8213791554118064      -5.82788594348369101E-003   2.6041442574094620        3.4277814921288616     
   1.5920787375899061       5.24688799352635016E-014   8.9852149095988256        4.8148817189974027       6.63954202361052522E-004   2.5990332887342489        3.4320022971804653     
   1.8071729447203497       4.00716786141952497E-014   8.9778538630012292        4.8185525089813765      -1.17464210734966490E-004   2.6009644952571049        3.4321348606993936     
   2.0032932954736329       2.87222502726169893E-014   8.9765374534509306        4.8162875040654312      -5.26119090064297514E-004   2.6000841449532555        3.4312313943988473     
   2.1737611465252891       1.88928733768634061E-014   8.9855467044011679        4.8174151611961387       9.51204249765089777E-004   2.6000503722142594        3.4329275925661800     
   2.3127714196614044       1.08624047256977718E-014   8.9701839615319514        4.8174354359170373      -1.37225430316516772E-003   2.6008989971862255        3.4307167788489470     
   2.4155902867547692       4.88845075530264239E-015   8.9873919526289026        4.8161845219069921       1.02888104895853855E-003   2.5993994405045746        3.4328925712875549     
   2.4787163746041654       1.25593979660720834E-015   8.9809248004961262        4.8173900196682986       4.49751331220200380E-004   2.6003643259140237        3.4320627697363553     
   2.4999999999992744       1.95156391047390798E-017   8.9788623649301584        4.8176416795221630       1.11667266166600885E-004   2.6004739192681208        3.4321320289478616     
  7.22329289782213429E-013  8.51345015819109791E-003   8.9889636414310896        4.8153063557313533      -9.44896297335469479E-005   2.5966883853608240        3.4388099504888836     
  2.12836253958327108E-002  8.51345015818991482E-003   8.9808478806068148        4.8171954700741182      -2.10290135858587097E-004   2.6002632953767422        3.4320522273789229     
  8.44097132452287929E-002  8.51345015818631701E-003   8.9805652631625819        4.8170208009725313       3.55301890592857144E-004   2.6001505449127080        3.4321009884127012     
  0.18722858033859593       8.51345015818043803E-003   8.9790355813572109        4.8171868925322423      -1.61413500865144642E-004   2.6003003560554570        3.4319421730827373     
  0.32623885347470966       8.51345015817255718E-003   8.9803715721035910        4.8169661109280764       2.60415634597394117E-004   2.6001612791318873        3.4319947107859292     
  0.49670670452636517       8.51345015816289651E-003   8.9787361536523953        4.8172670921171905      -2.97865002811517805E-004   2.6003046430104999        3.4320451411933415     
  0.69282705527964938       8.51345015815177866E-003   8.9809591684249526        4.8168447601827751       4.72455747750195193E-004   2.6001260687992636        3.4319147624303357     
  0.90792126241009286       8.51345015813951937E-003   8.9768289858066517        4.8177694312343595      -9.73904425859396404E-004   2.6005191797062226        3.4321947191549094     
   1.1346645506709394       8.51345015812666160E-003   8.9775007601341947        4.8196234309444108       6.60946407412296808E-005   2.6036090085012669        3.4266889423853146     
   1.3653354493290593       8.51345015811351934E-003   8.9843205054332991        4.8171834956811770       1.38197193461618833E-003   2.6004125153700826        3.4316415697502474     
   1.5920787375899059       8.51345015810069279E-003   8.9780210314201785        4.8171583304997911      -5.45326648495471898E-004   2.6001133167295536        3.4323952819244683     
   1.8071729447203495       8.51345015808844564E-003   8.9804695470799025        4.8170476393509176       3.74226314686010341E-004   2.6003167272647070        3.4317005632066020     
   2.0032932954736333       8.51345015807732433E-003   8.9789797443539339        4.8170417928402003      -2.57235964182445987E-004   2.6000831909831068        3.4323087105441394     
   2.1737611465252904       8.51345015806763070E-003   8.9798011051175166        4.8171666586326749       1.83456805344545283E-004   2.6003880701539979        3.4316818225987027     
   2.3127714196614053       8.51345015805973077E-003   8.9794206544979165        4.8170599532995482      -8.81818168140382428E-005   2.6001274391353340        3.4322177620746137     
   2.4155902867547709       8.51345015805392291E-003   8.9796873312322258        4.8170425079628458       5.40294433320610785E-006   2.6002416335428418        3.4318914453716620     
   2.4787163746041663       8.51345015805031989E-003   8.9789450173983099        4.8170997652161960       5.28481695302916734E-005   2.6002446060085771        3.4319651853710380     
   2.4999999999992775       8.51345015804911773E-003   8.9790358838503703        4.8172178703273341      -6.49161894641270585E-005   2.6004151480460638        3.4316833148717079     
  7.22360784211529857E-013  3.37638852979568402E-002   8.9862307442544882        4.8187057404640123      -6.93899595180299134E-005   2.6031571511001901        3.4265733981373456     
  2.12836253958326622E-002  3.37638852979556536E-002   8.9768755475619617        4.8170640492276116       7.59937456690040709E-005   2.6003419476997509        3.4316573569102062     
  8.44097132452289317E-002  3.37638852979522605E-002   8.9789022234151581        4.8170883190241636      -1.71807078049111584E-004   2.6002810741050886        3.4318526162982343     
  0.18722858033859596       3.37638852979467372E-002   8.9795610076122241        4.8170558286179324       6.96842205281512336E-005   2.6002294754898849        3.4319425203197440     
  0.32623885347470977       3.37638852979392570E-002   8.9793435916070070        4.8171612044811472      -1.34429611811800857E-004   2.6002546372747903        3.4320262532652928     
  0.49670670452636490       3.37638852979300977E-002   8.9794813204185804        4.8170244442719286       1.45998439431548841E-004   2.6002705453855728        3.4317893937809161     
  0.69282705527964927       3.37638852979195159E-002   8.9791592282078394        4.8172281916941930      -2.11423667238109787E-004   2.6002394245945979        3.4321618683720598     
  0.90792126241009297       3.37638852979079140E-002   8.9796547543907543        4.8166841077661005       3.66730589198220819E-004   2.6002320637571117        3.4314060588456976     
   1.1346645506709394       3.37638852978957016E-002   8.9694972503087094        4.8146359304940871      -2.59054808112492820E-004   2.5973471825919447        3.4361087200966516     
   1.3653354493290597       3.37638852978832671E-002   8.9791721332394143        4.8165889403822932      -8.90005130759768167E-004   2.5996414318160159        3.4328298920084133     
   1.5920787375899055       3.37638852978710338E-002   8.9801175482487299        4.8172518567582632       3.13806149416311000E-004   2.6005374661818403        3.4314089310873617     
   1.8071729447203488       3.37638852978594736E-002   8.9788487989427761        4.8170262798932653      -2.02940756935150171E-004   2.6000814834532080        3.4322911079781915     
   2.0032932954736338       3.37638852978488571E-002   8.9801688992640596        4.8172439790718906       1.22436819662897009E-004   2.6004526460066866        3.4316215465813884     
   2.1737611465252908       3.37638852978397394E-002   8.9786876995720455        4.8169944943979424      -6.40719483901117543E-005   2.6000929961257602        3.4322154117241128     
   2.3127714196614040       3.37638852978322593E-002   8.9804745656220550        4.8171148707701503      -1.33364198224704235E-005   2.6003145359200697        3.4318021196244723     
   2.4155902867547709       3.37638852978266596E-002   8.9784156195585290        4.8172541133357614       8.33189853269275570E-005   2.6003323783251733        3.4319534236989191     
   2.4787163746041667       3.37638852978232734E-002   8.9800142388800523        4.8170709228383908      -4.59276264361251841E-005   2.6002302520978287        3.4319619778551917     
   2.4999999999992748       3.37638852978221077E-002   8.9801920727691495        4.8169117749429109      -3.82787324374832448E-005   2.6000196651615286        3.4322911339662530     
  7.22321961670700765E-013  7.48914321353156276E-002   8.9750576818751107        4.8155437940184393       2.10557210128295034E-003   2.5971721462065402        3.4378686807236267     
  2.12836253958327108E-002  7.48914321353146145E-002   8.9811297895007485        4.8171384369118426      -1.26353305960570330E-004   2.6002211571599974        3.4320821915402280     
  8.44097132452287791E-002  7.48914321353114920E-002   8.9806177601268491        4.8170416580599653       2.90731397531603019E-005   2.6001583950429441        3.4321099672119559     
  0.18722858033859599       7.48914321353063850E-002   8.9790370841304963        4.8171630480221408      -4.73023626969688759E-005   2.6002812347729600        3.4319586677835088     
  0.32623885347470960       7.48914321352995571E-002   8.9803736611514147        4.8170019471346670       8.24232771129880401E-005   2.6001872155177952        3.4319772994505686     
  0.49670670452636495       7.48914321352912582E-002   8.9786534229069215        4.8172295547986108      -6.95171232851817108E-005   2.6002739896238687        3.4320725590250731     
  0.69282705527964883       7.48914321352816270E-002   8.9812125696071057        4.8168907640512746       8.80151390075488969E-005   2.6001576782756399        3.4318968417496545     
  0.90792126241009252       7.48914321352709550E-002   8.9766797901668429        4.8176900637426900      -1.47292677657261535E-004   2.6004358236030214        3.4323015317065337     
   1.1346645506709387       7.48914321352598805E-002   8.9883735864187617        4.8197234510068974      -1.38872591028312117E-003   2.6033842824020113        3.4274230925143772     
   1.3653354493290593       7.48914321352484313E-002   8.9841734643040070        4.8175611612730673       5.50554960641434863E-004   2.6006588067827052        3.4315293844983272     
   1.5920787375899050       7.48914321352374679E-002   8.9773321437830820        4.8170301830991775      -7.37329982215610929E-005   2.6000424263290314        3.4323997838327296     
   1.8071729447203497       7.48914321352267959E-002   8.9811948067001222        4.8171047613015441       1.24277414472986788E-005   2.6003362450415466        3.4317304144036278     
   2.0032932954736329       7.48914321352171647E-002   8.9781295254628866        4.8170034981288152       5.45481833393148129E-005   2.6000771341061655        3.4322701196868795     
   2.1737611465252900       7.48914321352088380E-002   8.9807439803329761        4.8171720483695610      -9.92220365678900121E-005   2.6003678292483969        3.4317429220334867     
   2.3127714196614031       7.48914321352020657E-002   8.9784703874069933        4.8170975853920268       1.43139421288199041E-004   2.6001737925153829        3.4321490175440363     
   2.4155902867547683       7.48914321351969864E-002   8.9802312134188842        4.8169649528509630      -1.19991703924321133E-004   2.6001829680443374        3.4319357983251049     
   2.4787163746041641       7.48914321351938361E-002   8.9793692735334538        4.8170943139947129      -3.39185088251000582E-005   2.6002196090254408        3.4320234035965744     
   2.4999999999992735       7.48914321351927537E-002   8.9791283939341771        4.8172625412126537       6.08603632730508984E-007   2.6004477950865925        3.4316607932653902     
  7.22211229395827818E-013  0.13049554138977709        8.9872745859237302        4.8185656605559126      -1.61393414059509939E-003   2.6033302003042538        3.4259190610636616     
  2.12836253958327802E-002  0.13049554138977615        8.9783188663921987        4.8170729669966201       6.80017979044825725E-005   2.6002358173705269        3.4319502001611517     
  8.44097132452287097E-002  0.13049554138977348        8.9776437690401085        4.8172084187917852      -4.37989966741279501E-005   2.6003825275370951        3.4317559461327276     
  0.18722858033859610       0.13049554138976910        8.9802258367805177        4.8170239659985725       1.95510083850071489E-005   2.6001934150049935        3.4319923087557136     
  0.32623885347470927       0.13049554138976310        8.9780076207388575        4.8172211020761431      -4.10883398990176675E-005   2.6003317740666940        3.4319079816953320     
  0.49670670452636462       0.13049554138975603        8.9811038331867632        4.8169348066023572       1.20021419852076620E-005   2.6001745191348049        3.4319151428100922     
  0.69282705527964872       0.13049554138974764        8.9765861392645654        4.8173659755080616      -1.59727808945743545E-006   2.6003938892787812        3.4319504445855289     
  0.90792126241009297       0.13049554138973829        8.9843961615684051        4.8163898838159271      -2.10173459566173868E-005   2.5999437422558098        3.4317478442226443     
   1.1346645506709387       0.13049554138972871        8.9665789152013247        4.8143072558576332       1.02880774499717774E-003   2.5970121483407538        3.4365262504323701     
   1.3653354493290581       0.13049554138971878        8.9706243760380033        4.8165926817529572      -3.49780365908176319E-004   2.5999430720421990        3.4320386307221442     
   1.5920787375899053       0.13049554138970912        8.9833719604005307        4.8171389572403580       1.20162870316329959E-005   2.6003861591143145        3.4316473934629648     
   1.8071729447203482       0.13049554138969996        8.9766008821435346        4.8171323329478728       3.04359141281424877E-005   2.6002034970807877        3.4321201116165043     
   2.0032932954736338       0.13049554138969149        8.9817632622499843        4.8171751115753096      -8.27792846516107284E-005   2.6003809721252460        3.4317125965652520     
   2.1737611465252873       0.13049554138968436        8.9776141976643693        4.8170494190705337       1.10194386729637011E-004   2.6001424272310656        3.4321631825583365     
   2.3127714196614035       0.13049554138967853        8.9807946714764224        4.8170813407606552      -1.32882399919183184E-004   2.6003038300082268        3.4317826059128347     
   2.4155902867547692       0.13049554138967395        8.9789946209865050        4.8172493439730646       9.52159916577228723E-005   2.6002968923010110        3.4320402999379085     
   2.4787163746041641       0.13049554138967126        8.9792723661022844        4.8171337077082335       3.72633686821607747E-005   2.6003023990146645        3.4318609956073884     
   2.4999999999992752       0.13049554138967032        8.9795544453512317        4.8169385972764394       8.74100450923471112E-006   2.6000413718850943        3.4322720482834619     
  7.22328823150405310E-013  0.19868268181045873        8.9705012898720788        4.8157190625715884       1.49794442251680753E-003   2.5970742423784969        3.4383778363274549     
  2.12836253958326969E-002  0.19868268181045814        8.9805630378033374        4.8170995531194025      -1.05026124950161573E-005   2.6002601707209503        3.4319237965696678     
  8.44097132452288484E-002  0.19868268181045604        8.9817895953263331        4.8169536817195207       3.09070832104673394E-005   2.6000637174803143        3.4322345493339914     
  0.18722858033859610       0.19868268181045229        8.9785615834933221        4.8171801253716309       8.16782124411530442E-006   2.6002943403384955        3.4319484062961401     
  0.32623885347470999       0.19868268181044740        8.9815108387118823        4.8169523217785581      -1.31365393628151199E-005   2.6001307414170594        3.4320556672077114     
  0.49670670452636523       0.19868268181044174        8.9772677533085368        4.8173098228354743       7.16003125318802639E-005   2.6003432548655065        3.4320040915690404     
  0.69282705527964983       0.19868268181043505        8.9834482886363283        4.8167635542028417      -1.25357445839594965E-004   2.6000397301858622        3.4320269380236073     
  0.90792126241009385       0.19868268181042728        8.9731158292052484        4.8179252404338380       2.52647409584845473E-004   2.6005915317173698        3.4322256035031891     
   1.1346645506709405       0.19868268181041956        8.9957069434906689        4.8200552253613296      -1.00103738100632044E-003   2.6036016760188465        3.4273224219330163     
   1.3653354493290599       0.19868268181041118        8.9919989538765694        4.8176486430375904       3.04620293173549206E-005   2.6004605154895577        3.4321773302559722     
   1.5920787375899064       0.19868268181040352        8.9743022524601148        4.8170897650192774       1.03650363389549095E-004   2.6001312586966976        3.4322501612295975     
   1.8071729447203497       0.19868268181039603        8.9833854844685703        4.8170266066035667      -1.18977494756703403E-004   2.6002438706774242        3.4318628844677295     
   2.0032932954736351       0.19868268181038901        8.9765125186506083        4.8170406716836700       1.54614936142134562E-004   2.6001180845729510        3.4322149840488576     
   2.1737611465252922       0.19868268181038326        8.9819013869375404        4.8171363458983336      -1.57260051153154461E-004   2.6003360443796422        3.4317759498912062     
   2.3127714196614058       0.19868268181037854        8.9780031164882779        4.8171347686991464       1.45648387199920088E-004   2.6001826510474730        3.4321786173401709     
   2.4155902867547718       0.19868268181037488        8.9798394721378330        4.8169306129141640      -6.90837325168005287E-005   2.6001953359331886        3.4318542172095077     
   2.4787163746041685       0.19868268181037249        8.9799305484949841        4.8170445090654814      -5.49922152552979117E-005   2.6001558187075018        3.4321208315274832     
   2.4999999999992775       0.19868268181037183        8.9796424919285567        4.8172741572032418      -3.55685640401461007E-005   2.6004613310254019        3.4316416180914140     
  7.22314475829793055E-013  0.27713082211179541        8.8843528682525861        4.8247556280437189       1.39781969000424989E-002   2.6128877620705890        3.4096733764384202     
  2.12836253958327351E-002  0.27713082211179491        8.9782505228740419        4.8171816832155363      -1.34352557627698916E-004   2.6002308619443331        3.4321181964111593     
  8.44097132452288207E-002  0.27713082211179318        8.9818348211144450        4.8174822202867906      -8.77791572289407323E-004   2.6003485397627548        3.4322359007070156     
  0.18722858033859618       0.27713082211179058        8.9827403628454832        4.8168308139688456      -2.65120615520588257E-004   2.5999728792166001        3.4322992912309860     
  0.32623885347471010       0.27713082211178680        8.9769245410335490        4.8176527610521642      -3.12332859044048912E-005   2.6006035903878799        3.4318055579231155     
  0.49670670452636528       0.27713082211178264        8.9822017723260519        4.8163477101819501       3.95436373763549563E-006   2.5998324350049034        3.4319815954022408     
  0.69282705527964983       0.27713082211177770        8.9749544097236278        4.8182305410691910      -2.33992331172334102E-005   2.6009010187522299        3.4318437207846344     
  0.90792126241009363       0.27713082211177215        8.9880682950763440        4.8145606435680381      -1.13182742038981206E-004   2.5988230854932892        3.4320996666443917     
   1.1346645506709401       0.27713082211176610        9.0524931537577622        4.8087766542029353      -1.29475869300438948E-002   2.5885968767922711        3.4509885296163181     
   1.3653354493290606       0.27713082211176004        8.9802259521010654        4.8176381403585191      -2.79565210576780384E-003   2.5997614687814568        3.4340095100268666     
   1.5920787375899066       0.27713082211175449        8.9785430444393768        4.8166148881247581       1.15622160251605791E-003   2.6004816536597648        3.4306489824497017     
   1.8071729447203502       0.27713082211174883        8.9802446331594545        4.8174913629405518      -8.13823303461984251E-004   2.6001326226242725        3.4328189693405693     
   2.0032932954736342       0.27713082211174356        8.9781480451932048        4.8170245933185649       6.63744740180535211E-004   2.6005657256771606        3.4310106536717839     
   2.1737611465252922       0.27713082211173939        8.9813062620136481        4.8170487875894326      -6.15373389207097112E-004   2.5998954486833221        3.4328144483112006     
   2.3127714196614066       0.27713082211173606        8.9774808115331997        4.8172495922217475       4.74340038477386928E-004   2.6006040647188011        3.4312299770521903     
   2.4155902867547732       0.27713082211173312        8.9802944411202876        4.8169859374283526      -9.66691471553981563E-005   2.6000819133674207        3.4322324778038000     
   2.4787163746041680       0.27713082211173151        8.9811075363433570        4.8171927796376588      -3.44723754598090623E-004   2.6002621917338060        3.4320513181313332     
   2.4999999999992788       0.27713082211173085        8.9806611114968380        4.8170335293688664      -2.22220895431757357E-004   2.5999856962089307        3.4325543467681667     
  7.22286787966119919E-013  0.36316850496399766        8.3096477480582820        4.9168999232539168       8.64587262667414619E-002   2.7233925163919008        3.2605924609643182     
  2.12836253958327247E-002  0.36316850496399766        9.0258510368285059        4.8124880991024810      -5.80077026631067860E-003   2.5954536082422375        3.4380598042135668     
  8.44097132452287791E-002  0.36316850496399650        8.9830911919362126        4.8195542473036177      -3.12101385013032091E-003   2.6006564162318808        3.4343770152895874     
  0.18722858033859605       0.36316850496399472        9.0099959244893366        4.8132851178414047      -2.02817587239713468E-003   2.5959223619565757        3.4379523591071393     
  0.32623885347470949       0.36316850496399233        8.9511534181666210        4.8217898996506410       1.25946012201717762E-003   2.6045595066966749        3.4272676912502642     
  0.49670670452636490       0.36316850496398995        9.0152686944904303        4.8110464405938105      -1.19145554917741612E-003   2.5947382914117232        3.4378902086703484     
  0.69282705527964905       0.36316850496398712        8.9283759701580259        4.8260729794927562       1.51755778681834973E-003   2.6083524932299285        3.4233811073968177     
  0.90792126241009341       0.36316850496398340        9.1244513111968732        4.7916647327551889      -4.84924220271955309E-003   2.5764313709262563        3.4588850914834977     
   1.1346645506709399       0.36316850496398007        9.6156706082195829        4.7156860748470262      -7.46901830264023875E-002   2.4871867881844465        3.5956871926231893     
   1.3653354493290593       0.36316850496397585        8.9100498893727860        4.8194605468498981       2.20594993626328144E-004   2.5996680555399667        3.4368538497786676     
   1.5920787375899050       0.36316850496397263        8.9957194296599390        4.8135122831718418       2.37548001098207735E-003   2.5991551548551857        3.4297294622210281     
   1.8071729447203486       0.36316850496396924        8.9775474442375067        4.8190602458544705      -2.85585861686586196E-003   2.6001888561781219        3.4349077556400696     
   2.0032932954736329       0.36316850496396563        8.9725477676007195        4.8161016800674163       3.55045766602138380E-003   2.6010247601227316        3.4284874018995684     
   2.1737611465252895       0.36316850496396347        8.9945653180705456        4.8169592692154941      -4.11819500441287876E-003   2.5985958498856454        3.4361236567801621     
   2.3127714196614058       0.36316850496396141        8.9589925167307864        4.8185807146510280       4.20778894264392522E-003   2.6025023814975410        3.4281225290637951     
   2.4155902867547701       0.36316850496395964        8.9962988820367844        4.8144462688241054      -2.37296791908178087E-003   2.5981727856840440        3.4336556169852543     
   2.4787163746041663       0.36316850496395858        8.9828668036313122        4.8178763153037965      -1.67503134251921612E-003   2.6000900412701573        3.4334803789644663     
   2.4999999999992761       0.36316850496395814        8.9784261588190759        4.8184268701564390      -7.00100239718466589E-004   2.6005684570782805        3.4330013330643325     
  7.22287069647279191E-013  0.45386582026836236        7.1977479612774911        5.1860362964879716       9.18725258126405070E-002   3.1460149142844305        2.7182276435915753     
  2.12836253958327282E-002  0.45386582026836214        9.1429535384650773        4.7949622399489122      -7.09101513894801975E-003   2.5787159692332375        3.4575169136870221     
  8.44097132452288207E-002  0.45386582026836197        8.8959840425541152        4.8281863472356266      -1.43345874381939679E-003   2.6064303349770768        3.4314355201320881     
  0.18722858033859613       0.45386582026836153        9.1011376171982938        4.8005719283585631      -2.43590695041271234E-003   2.5828506831883944        3.4545181147117350     
  0.32623885347470971       0.45386582026836031        8.8273406529814498        4.8353501879717804       2.33804040142404244E-003   2.6179497591968688        3.4114055401497709     
  0.49670670452636517       0.45386582026835987        9.1667000768572002        4.7935665894317685      -2.16854649588144391E-003   2.5787138408539292        3.4555033294587867     
  0.69282705527964927       0.45386582026835898        8.7041604618478026        4.8520586558034875       3.03132648186631246E-003   2.6326122855261129        3.3968662483639482     
  0.90792126241009330       0.45386582026835731        9.6563298072434751        4.7133038642841196      -7.81794972057499489E-003   2.5077003733857306        3.5326514066931192     
   1.1346645506709399       0.45386582026835642        10.641470678820802        4.4026025671064994      -7.56402015844671871E-002   2.1762703906005978        4.0937511033743972     
   1.3653354493290599       0.45386582026835470        8.4122111799369890        4.8128761333687988       9.13296449243581471E-003   2.5964458982054777        3.4359938487952988     
   1.5920787375899064       0.45386582026835393        9.1803534298354865        4.8061762467392830       4.60495874981207214E-005   2.5972639582438575        3.4242637443375910     
   1.8071729447203508       0.45386582026835270        8.8606887593941597        4.8233473080908018      -1.54312180385919443E-003   2.6004040063523379        3.4404516656261221     
   2.0032932954736338       0.45386582026835143        9.0444022505311921        4.8155491912854185       3.06204209116120452E-003   2.6044856342948757        3.4185968657867489     
   2.1737611465252913       0.45386582026835087        8.9593186489833325        4.8157569149199286      -4.09757146079416535E-003   2.5936499741528136        3.4475192290344676     
   2.3127714196614058       0.45386582026835059        8.9540629632174262        4.8211336896648964       4.76640086714872051E-003   2.6083896912927180        3.4162828706468513     
   2.4155902867547705       0.45386582026834960        9.0329308813287472        4.8116236111074961      -3.15294676549800331E-003   2.5941843416387451        3.4401851268892312     
   2.4787163746041667       0.45386582026834910        8.9663897182561296        4.8210959455925373      -1.58258155032144727E-003   2.6020336058936477        3.4329366826443803     
   2.4999999999992757       0.45386582026834882        8.9615353385517320        4.8183247802662343      -6.04051399313210841E-004   2.5976304727031159        3.4406255246715558     
  7.22262606199607297E-013  0.54613417973163680        7.1977479612775133        5.1860362964878277      -9.18725258126510125E-002   3.1460149142842968        2.7182276435916557     